------------------------------------------------------------
          Invoking FHI-aims ...

          When using FHI-aims, please cite the following reference:

          Volker Blum, Ralf Gehrke, Felix Hanke, Paula Havu,
          Ville Havu, Xinguo Ren, Karsten Reuter, and Matthias Scheffler,
          'Ab Initio Molecular Simulations with Numeric Atom-Centered Orbitals',
          Computer Physics Communications 180, 2175-2196 (2009)

          For any questions about FHI-aims, please visit the aimsclub website
          with its forums and wiki. Contributions to both the forums and the
          wiki are warmly encouraged - they are for you, and everyone is welcome there.

------------------------------------------------------------



  Date     :  20201103, Time     :  200853.864
  Time zero on CPU 1             :   0.323480000000000E-01  s.
  Internal wall clock time zero  :           373666133.864  s.

  FHI-aims created a unique identifier for this run for later identification
  aims_uuid : E532FF82-DC4E-48A6-A5B4-2EFA41474361

  Build configuration of the current instance of FHI-aims
  -------------------------------------------------------
  FHI-aims version      : 200511
  Commit number         : 893499fe0
  CMake host system     : Linux-3.10.0-957.12.2.el7.x86_64
  CMake version         : 3.12.0
  Fortran compiler      : /apps/compilers/intel/2018.2/compilers_and_libraries_2018/linux/mpi/intel64/bin/mpiifort (Intel) version 18.0.2.20180210
  Fortran compiler flags: -O3 -g -traceback -ip -fp-model precise -module $(MODDIR) -fPIC
  C compiler            : /apps/compilers/intel/2018.2/compilers_and_libraries_2018/linux/mpi/intel64/bin/mpicc (Intel) version 18.0.2.20180210
  C compiler flags      : -fPIC
  Using MPI
  Using Scalapack
  Using LibXC
  Using SPGlib
  Using i-PI
  Using RLSY
  Linking against: /apps/compilers/intel/2018.2/compilers_and_libraries_2018/linux/mkl/lib/intel64/libmkl_scalapack_lp64.so
                   /apps/compilers/intel/2018.2/compilers_and_libraries_2018/linux/mkl/lib/intel64/libmkl_blacs_intelmpi_lp64.so
                   /apps/compilers/intel/2018.2/compilers_and_libraries_2018/linux/mkl/lib/intel64/libmkl_intel_lp64.so
                   /apps/compilers/intel/2018.2/compilers_and_libraries_2018/linux/mkl/lib/intel64/libmkl_intel_thread.so
                   /apps/compilers/intel/2018.2/compilers_and_libraries_2018/linux/mkl/lib/intel64/libmkl_core.so
                   /usr/lib64/libpthread.so
                   /home/scw1057/software/libxc/libxc-4.3.4/lib/libxcf03.so
                   /home/scw1057/software/libxc/libxc-4.3.4/lib/libxcf90.so
                   /home/scw1057/software/libxc/libxc-4.3.4/lib/libxc.so

  Using       40 parallel tasks.
  Task        0 on host ccs2009 reporting.
  Task        1 on host ccs2009 reporting.
  Task        2 on host ccs2009 reporting.
  Task        3 on host ccs2009 reporting.
  Task        4 on host ccs2009 reporting.
  Task        5 on host ccs2009 reporting.
  Task        6 on host ccs2009 reporting.
  Task        7 on host ccs2009 reporting.
  Task        8 on host ccs2009 reporting.
  Task        9 on host ccs2009 reporting.
  Task       10 on host ccs2009 reporting.
  Task       11 on host ccs2009 reporting.
  Task       12 on host ccs2009 reporting.
  Task       13 on host ccs2009 reporting.
  Task       14 on host ccs2009 reporting.
  Task       15 on host ccs2009 reporting.
  Task       16 on host ccs2009 reporting.
  Task       17 on host ccs2009 reporting.
  Task       18 on host ccs2009 reporting.
  Task       19 on host ccs2009 reporting.
  Task       20 on host ccs2009 reporting.
  Task       21 on host ccs2009 reporting.
  Task       22 on host ccs2009 reporting.
  Task       23 on host ccs2009 reporting.
  Task       24 on host ccs2009 reporting.
  Task       25 on host ccs2009 reporting.
  Task       26 on host ccs2009 reporting.
  Task       27 on host ccs2009 reporting.
  Task       28 on host ccs2009 reporting.
  Task       29 on host ccs2009 reporting.
  Task       30 on host ccs2009 reporting.
  Task       31 on host ccs2009 reporting.
  Task       32 on host ccs2009 reporting.
  Task       33 on host ccs2009 reporting.
  Task       34 on host ccs2009 reporting.
  Task       35 on host ccs2009 reporting.
  Task       36 on host ccs2009 reporting.
  Task       37 on host ccs2009 reporting.
  Task       38 on host ccs2009 reporting.
  Task       39 on host ccs2009 reporting.

  Performing system and environment tests:
  *** Environment variable OMP_NUM_THREADS is not set
  *** For performance reasons you might want to set it to 1
  | Maximum stacksize for task 0: unlimited
  | Maximum stacksize for task 1: unlimited
  | Maximum stacksize for task 2: unlimited
  | Maximum stacksize for task 3: unlimited
  | Maximum stacksize for task 4: unlimited
  | Maximum stacksize for task 5: unlimited
  | Maximum stacksize for task 6: unlimited
  | Maximum stacksize for task 7: unlimited
  | Maximum stacksize for task 8: unlimited
  | Maximum stacksize for task 9: unlimited
  | Maximum stacksize for task 10: unlimited
  | Maximum stacksize for task 11: unlimited
  | Maximum stacksize for task 12: unlimited
  | Maximum stacksize for task 13: unlimited
  | Maximum stacksize for task 14: unlimited
  | Maximum stacksize for task 15: unlimited
  | Maximum stacksize for task 16: unlimited
  | Maximum stacksize for task 17: unlimited
  | Maximum stacksize for task 18: unlimited
  | Maximum stacksize for task 19: unlimited
  | Maximum stacksize for task 20: unlimited
  | Maximum stacksize for task 21: unlimited
  | Maximum stacksize for task 22: unlimited
  | Maximum stacksize for task 23: unlimited
  | Maximum stacksize for task 24: unlimited
  | Maximum stacksize for task 25: unlimited
  | Maximum stacksize for task 26: unlimited
  | Maximum stacksize for task 27: unlimited
  | Maximum stacksize for task 28: unlimited
  | Maximum stacksize for task 29: unlimited
  | Maximum stacksize for task 30: unlimited
  | Maximum stacksize for task 31: unlimited
  | Maximum stacksize for task 32: unlimited
  | Maximum stacksize for task 33: unlimited
  | Maximum stacksize for task 34: unlimited
  | Maximum stacksize for task 35: unlimited
  | Maximum stacksize for task 36: unlimited
  | Maximum stacksize for task 37: unlimited
  | Maximum stacksize for task 38: unlimited
  | Maximum stacksize for task 39: unlimited
  | Current stacksize for task 0: unlimited
  | Current stacksize for task 1: unlimited
  | Current stacksize for task 2: unlimited
  | Current stacksize for task 3: unlimited
  | Current stacksize for task 4: unlimited
  | Current stacksize for task 5: unlimited
  | Current stacksize for task 6: unlimited
  | Current stacksize for task 7: unlimited
  | Current stacksize for task 8: unlimited
  | Current stacksize for task 9: unlimited
  | Current stacksize for task 10: unlimited
  | Current stacksize for task 11: unlimited
  | Current stacksize for task 12: unlimited
  | Current stacksize for task 13: unlimited
  | Current stacksize for task 14: unlimited
  | Current stacksize for task 15: unlimited
  | Current stacksize for task 16: unlimited
  | Current stacksize for task 17: unlimited
  | Current stacksize for task 18: unlimited
  | Current stacksize for task 19: unlimited
  | Current stacksize for task 20: unlimited
  | Current stacksize for task 21: unlimited
  | Current stacksize for task 22: unlimited
  | Current stacksize for task 23: unlimited
  | Current stacksize for task 24: unlimited
  | Current stacksize for task 25: unlimited
  | Current stacksize for task 26: unlimited
  | Current stacksize for task 27: unlimited
  | Current stacksize for task 28: unlimited
  | Current stacksize for task 29: unlimited
  | Current stacksize for task 30: unlimited
  | Current stacksize for task 31: unlimited
  | Current stacksize for task 32: unlimited
  | Current stacksize for task 33: unlimited
  | Current stacksize for task 34: unlimited
  | Current stacksize for task 35: unlimited
  | Current stacksize for task 36: unlimited
  | Current stacksize for task 37: unlimited
  | Current stacksize for task 38: unlimited
  | Current stacksize for task 39: unlimited
  | Checking for scalapack...
  | Testing pdtran()...
  | All pdtran() tests passed.

  Obtaining array dimensions for all initial allocations:
  
  -----------------------------------------------------------------------
  Parsing control.in (first pass over file, find array dimensions only).
  The contents of control.in will be repeated verbatim below
  unless switched off by setting 'verbatim_writeout .false.' .
  in the first line of control.in .
  -----------------------------------------------------------------------
  
  #===============================================================================
  # FHI-aims file: ./control.in
  # Created using the Atomic Simulation Environment (ASE)
  # Tue Nov  3 20:08:53 2020
  #===============================================================================
  xc                                 pbe0
  output                             dipole
  sc_accuracy_etot                   1e-08
  sc_accuracy_eev                    1e-06
  sc_accuracy_rho                    1e-06
  relativistic                       atomic_zora scalar
  compute_forces                     .true.
  sc_iter_limit                      40
  solvent                            mpb
  dielec_func                        1 78.358 0.0003 0.0015
  ions_conc                          0
  #===============================================================================
  
  ################################################################################
  #
  #  FHI-aims code project
  # Volker Blum, Fritz Haber Institute Berlin, 2009
  #
  #  Suggested "tight" defaults for O atom (to be pasted into control.in file)
  #
  ################################################################################
    species        O
    species        O
  #     global species definitions
      nucleus             8
      mass                15.9994
  #
      l_hartree           6
  #
      cut_pot             4.0  2.0  1.0
      basis_dep_cutoff    1e-4
  #
      radial_base         36 7.0
      radial_multiplier   2
       angular_grids specified
        division   0.1817   50
        division   0.3417  110
        division   0.4949  194
        division   0.6251  302
        division   0.8014  434
  #      division   0.8507  590
  #      division   0.8762  770
  #      division   0.9023  974
  #      division   1.2339 1202
  #      outer_grid 974
        outer_grid  434
  ################################################################################
  #
  #  Definition of "minimal" basis
  #
  ################################################################################
  #     valence basis states
      valence      2  s   2.
      valence      2  p   4.
  #     ion occupancy
      ion_occ      2  s   1.
      ion_occ      2  p   3.
  ################################################################################
  #
  #  Suggested additional basis functions. For production calculations,
  #  uncomment them one after another (the most important basis functions are
  #  listed first).
  #
  #  Constructed for dimers: 1.0 A, 1.208 A, 1.5 A, 2.0 A, 3.0 A
  #
  ################################################################################
  #  "First tier" - improvements: -699.05 meV to -159.38 meV
       hydro 2 p 1.8
       hydro 3 d 7.6
       hydro 3 s 6.4
  #  "Second tier" - improvements: -49.91 meV to -5.39 meV
       hydro 4 f 11.6
       hydro 3 p 6.2
       hydro 3 d 5.6
       hydro 5 g 17.6
       hydro 1 s 0.75
  #  "Third tier" - improvements: -2.83 meV to -0.50 meV
  #     ionic 2 p auto
  #     hydro 4 f 10.8
  #     hydro 4 d 4.7
  #     hydro 2 s 6.8
  #  "Fourth tier" - improvements: -0.40 meV to -0.12 meV
  #     hydro 3 p 5
  #     hydro 3 s 3.3
  #     hydro 5 g 15.6
  #     hydro 4 f 17.6
  #     hydro 4 d 14
  # Further basis functions - -0.08 meV and below
  #     hydro 3 s 2.1
  #     hydro 4 d 11.6
  #     hydro 3 p 16
  #     hydro 2 s 17.2
  ################################################################################
  #
  # For methods that use the localized form of the "resolution of identity" for
  # the two-electron Coulomb operator (RI_method LVL), particularly Hartree-Fock and
  # hybrid density functional calculations, the highest accuracy can be obtained by
  # uncommenting the line beginning with "for_aux"  below, thus adding an extra g radial
  # function to the construction of the product basis set for the expansion.
  # See Ref. New J. Phys. 17, 093020 (2015) for more information, particularly Figs. 1 and 6.
  #
  ################################################################################
  #
  # for_aux hydro 5 g 6.0
  ################################################################################
  #
  #  FHI-aims code project
  # Volker Blum, Fritz Haber Institute Berlin, 2009
  #
  #  Suggested "tight" defaults for H atom (to be pasted into control.in file)
  #
  ################################################################################
    species        H
  #     global species definitions
      nucleus             1
      mass                1.00794
  #
      l_hartree           6
  #
      cut_pot             4.0  2.0  1.0
      basis_dep_cutoff    1e-4
  #
      radial_base         24 7.0
      radial_multiplier   2
      angular_grids       specified
        division   0.1930   50
        division   0.3175  110
        division   0.4293  194
        division   0.5066  302
        division   0.5626  434
  #      division   0.5922  590
  #      division   0.6227  974
  #      division   0.6868 1202
  #      outer_grid  770
        outer_grid  434
  ################################################################################
  #
  #  Definition of "minimal" basis
  #
  ################################################################################
  #     valence basis states
      valence      1  s   1.
  #     ion occupancy
      ion_occ      1  s   0.5
  ################################################################################
  #
  #  Suggested additional basis functions. For production calculations,
  #  uncomment them one after another (the most important basis functions are
  #  listed first).
  #
  #  Basis constructed for dimers: 0.5 A, 0.7 A, 1.0 A, 1.5 A, 2.5 A
  #
  ################################################################################
  #  "First tier" - improvements: -1014.90 meV to -62.69 meV
       hydro 2 s 2.1
       hydro 2 p 3.5
  #  "Second tier" - improvements: -12.89 meV to -1.83 meV
       hydro 1 s 0.85
       hydro 2 p 3.7
       hydro 2 s 1.2
       hydro 3 d 7
  #  "Third tier" - improvements: -0.25 meV to -0.12 meV
  #     hydro 4 f 11.2
  #     hydro 3 p 4.8
  #     hydro 4 d 9
  #     hydro 3 s 3.2
  ################################################################################
  #
  # For methods that use the localized form of the "resolution of identity" for
  # the two-electron Coulomb operator (RI_method LVL), particularly Hartree-Fock and
  # hybrid density functional calculations, the highest accuracy can be obtained by
  # uncommenting the line beginning with "for_aux"  below, thus adding an extra g radial
  # function to the construction of the product basis set for the expansion.
  # See Ref. New J. Phys. 17, 093020 (2015) for more information, particularly Figs. 1 and 6.
  #
  ################################################################################
  #
  # for_aux hydro 5 g 6.0
  
  -----------------------------------------------------------------------
  Completed first pass over input file control.in .
  -----------------------------------------------------------------------
  
  
  -----------------------------------------------------------------------
  Parsing geometry.in (first pass over file, find array dimensions only).
  The contents of geometry.in will be repeated verbatim below
  unless switched off by setting 'verbatim_writeout .false.' .
  in the first line of geometry.in .
  -----------------------------------------------------------------------
  
  #=======================================================
  # FHI-aims file: ./geometry.in
  # Created using the Atomic Simulation Environment (ASE)
  # Tue Nov  3 20:08:53 2020
  #=======================================================
  atom -0.0190939433809876 -0.0000000000000000 0.0000000000232481 O
  atom 0.7685469716729885 0.0000000000000000 0.5428439870430490 H
  atom 0.7685469717079991 -0.0000000000000000 -0.5428439870662972 H
  
  -----------------------------------------------------------------------
  Completed first pass over input file geometry.in .
  -----------------------------------------------------------------------
  

  Basic array size parameters:
  | Number of species                 :        2
  | Number of atoms                   :        3
  | Max. basis fn. angular momentum   :        4
  | Max. atomic/ionic basis occupied n:        2
  | Max. number of basis fn. types    :        2
  | Max. radial fns per species/type  :        8
  | Max. logarithmic grid size        :     1301
  | Max. radial integration grid size :       73
  | Max. angular integration grid size:      434
  | Max. angular grid division number :        8
  | Radial grid for Hartree potential :     1301
  | Number of spin channels           :        1

------------------------------------------------------------
          Reading file control.in.
------------------------------------------------------------
  XC: Using hybrid-PBE0 functionals.
  Dipole moment will be written out.
  Convergence accuracy of total energy:  0.1000E-07
  Convergence accuracy of sum of eigenvalues:  0.1000E-05
  Convergence accuracy of self-consistent charge density:  0.1000E-05
  Scalar relativistic treatment of kinetic energy: on-site free-atom approximation to ZORA.
  Forces will be computed.
  Maximum number of s.-c. iterations  :    40

  Solvent effects will be calculated by using MPB method.
  ################################################################################################
   MPB solvent effects have been requested. Please read the
   following publications (and cite them) for a correct use and also check the Manual (!):
   ---------------------------------------------------------------------------------------------------
   Ringe, S., Oberhofer, H., Hille, C., Matera, S., Reuter, K., Function-Space oriented Solution Scheme for the
   Size-Modified Poisson-Boltzmann Equation in Full-Potential DFT, JCTC 2016, 12, 4052-4066.
   DOI: 10.1021/acs.jctc.6b00435
   Ringe, S., Oberhofer, H., Reuter, K., Transferable ionic parameters for first-principles
   Poisson-Boltzmann solvation calculations: Neutral solutes in
   aqueous monovalent salt solutions, JCP 2017, 13, 134103.
   DOI: 10.1063/1.4978850
   ---------------------------------------------------------------------------------------------------
 
  | Reading configuration options for the MPB solver 
  | Using self-consistent calculation of dispersion/Pauli-
    repulsion/cavity creation free energy. Could lead to worse convergence of SCF and
    is not always needed, see Ringe,Oberhofer,Hille,Matera,Reuter, JCTC, 2016.
  | The temperature of the pseudoatomiccharges is set to:
    | T_mpb =    300.00000000  K
  | The following parameters are used inthe MPB method to model a smooth dielectric function:
    | eps_infinity =     78.35800000
    | n_min =      0.00030000  e/bohr**3
    | n_max =      0.00150000  e/bohr**3
  | A z:z electrolyt will be incorporated with
    | concentration: c_mpb =      0.00000000  mol/L
    | charge: z_mpb =  1
    | size: a_mpb =      5.00000000  Ang
    | d_alpha_ion =      0.50000000
    | xi_alpha_ion =      1.00000000
  | The linear PB equation is solved by multipole expansion up to
    | Using maximum angular momentum for SPE multipole expansion of l_max =  0
    | and in the far field l_max =  0
  | tau_merm =   0.100000E-09
  | The dielectric function will be updated in each SCF step.
  | The exclusion function will be updated in each SCF step.
  | The dielectric function dependence on the electron density is added to the Kohn-Sham Hamiltonian.
  | The exclusion function dependence on the electron density is added to the Kohn-Sham Hamiltonian.
  | Forces (from MPB scheme) will be computed.
  | Giving concentration a finite value due to numerical issues, c_mpb =   0.100000E-29
  | Switching from MPBE to LPBE solver which is faster and more stable for c = 0M (no ion) case.
  | Using LPB-DFT method.
  | Using iterative/relaxation SC-LPBE solver.
  | Using faster SC-LPBE solver which does not require full update of potential in each iteration step.
  | volume fraction of ions, phi_zero_mpb =      0.00000000 a.u.
 
  Reading configuration options for species O                   .
  | Found nuclear charge :   8.0000
  | Found atomic mass :    15.9994000000000      amu
  | Found l_max for Hartree potential  :   6
  | Found cutoff potl. onset [A], width [A], scale factor :    4.00000    2.00000    1.00000
  | Threshold for basis-dependent cutoff potential is   0.100000E-03
  | Found data for basic radial integration grid :    36 points, outermost radius =    7.000 A
  | Found multiplier for basic radial grid :   2
  | Found angular grid specification: user-specified.
  | Specified grid contains     6 separate shells.
  | Check grid settings after all constraints further below.
  | Found free-atom valence shell :  2 s   2.000
  | Found free-atom valence shell :  2 p   4.000
  | No ionic wave fns used. Skipping ion_occ.
  | No ionic wave fns used. Skipping ion_occ.
  | Found hydrogenic basis function :  2 p   1.800
  | Found hydrogenic basis function :  3 d   7.600
  | Found hydrogenic basis function :  3 s   6.400
  | Found hydrogenic basis function :  4 f  11.600
  | Found hydrogenic basis function :  3 p   6.200
  | Found hydrogenic basis function :  3 d   5.600
  | Found hydrogenic basis function :  5 g  17.600
  | Found hydrogenic basis function :  1 s   0.750
  Species O                   : Missing cutoff potential type.
  Defaulting to exp(1/x)/(1-x)^2 type cutoff potential.
  Species O : No 'logarithmic' tag. Using default grid for free atom:
  | Default logarithmic grid data [bohr] : 0.1000E-03 0.1000E+03 0.1012E+01
  Species O : On-site basis accuracy parameter (for Gram-Schmidt orthonormalisation) not specified.
  Using default value basis_acc =  0.1000000E-03.
  Species O                   : Using default innermost maximum threshold i_radial=  2 for radial functions.
  Species O                   : Default cutoff onset for free atom density etc. : 0.40000000E+01 AA.
  Species O                   : Basic radial grid will be enhanced according to radial_multiplier =   2, to contain    73 grid points.
 
  Reading configuration options for species H                   .
  | Found nuclear charge :   1.0000
  | Found atomic mass :    1.00794000000000      amu
  | Found l_max for Hartree potential  :   6
  | Found cutoff potl. onset [A], width [A], scale factor :    4.00000    2.00000    1.00000
  | Threshold for basis-dependent cutoff potential is   0.100000E-03
  | Found data for basic radial integration grid :    24 points, outermost radius =    7.000 A
  | Found multiplier for basic radial grid :   2
  | Found angular grid specification: user-specified.
  | Specified grid contains     6 separate shells.
  | Check grid settings after all constraints further below.
  | Found free-atom valence shell :  1 s   1.000
  | No ionic wave fns used. Skipping ion_occ.
  | Found hydrogenic basis function :  2 s   2.100
  | Found hydrogenic basis function :  2 p   3.500
  | Found hydrogenic basis function :  1 s   0.850
  | Found hydrogenic basis function :  2 p   3.700
  | Found hydrogenic basis function :  2 s   1.200
  | Found hydrogenic basis function :  3 d   7.000
  Species H                   : Missing cutoff potential type.
  Defaulting to exp(1/x)/(1-x)^2 type cutoff potential.
  Species H : No 'logarithmic' tag. Using default grid for free atom:
  | Default logarithmic grid data [bohr] : 0.1000E-03 0.1000E+03 0.1012E+01
  Species H : On-site basis accuracy parameter (for Gram-Schmidt orthonormalisation) not specified.
  Using default value basis_acc =  0.1000000E-03.
  Species H                   : Using default innermost maximum threshold i_radial=  2 for radial functions.
  Species H                   : Default cutoff onset for free atom density etc. : 0.40000000E+01 AA.
  Species H                   : Basic radial grid will be enhanced according to radial_multiplier =   2, to contain    49 grid points.
 
  Finished reading input file 'control.in'. Consistency checks are next.
 
  MPI_IN_PLACE appears to work with this MPI implementation.
  | Keeping use_mpi_in_place .true. (see manual).
  Explicit treatment of the Coulomb operator is needed, but the RI method is not specified.
  Coulomb operator: Defaulting to 'LVL fast' resolution of identity - RI_type = LVL_fast
  Species O: Using default value for prodbas_acc =   1.000000E-04.
  Species O: Using default value max_l_prodbas =    20.
  Explicit treatment of the Coulomb operator is needed, but the RI method is not specified.
  Coulomb operator: Defaulting to 'LVL fast' resolution of identity - RI_type = LVL_fast
  Species H: Using default value for prodbas_acc =   1.000000E-04.
  Species H: Using default value max_l_prodbas =    20.
  Target number of points in a grid batch is not set. Defaulting to  100
  Method for grid partitioning is not set. Defaulting to parallel hash+maxmin partitioning.
  Batch size limit is not set. Defaulting to    200
  By default, will store active basis functions for each batch.
  If in need of memory, prune_basis_once .false. can be used to disable this option.
  communication_type for Hartree potential was not specified.
  Defaulting to calc_hartree .
  Defaulting to Pulay charge density mixer.
  Pulay mixer: Number of relevant iterations not set.
  Defaulting to    8 iterations.
  Pulay mixer: Number of initial linear mixing iterations not set.
  Defaulting to    0 iterations.
  Work space size for distributed Hartree potential not set.
  Defaulting to   0.200000E+03 MB.
  Mixing parameter for charge density mixing has not been set.
  Using default: charge_mix_param =     0.0500.
  The mixing parameter will be adjusted in iteration number     2 of the first full s.c.f. cycle only.
  Algorithm-dependent basis array size parameters:
  | n_max_pulay                         :        8
  Presetting      1001 iterations before the initial mixing cycle
  is restarted anyway using the sc_init_iter criterion / keyword.
  Presetting a factor      1.000 between actual scf density residual
  and density convergence criterion sc_accuracy_rho below which sc_init_iter
  takes no effect.
  Geometry relaxation not requested: no relaxation will be performed.
  Force calculation: scf convergence accuracy of forces not set.
  Defaulting to 'sc_accuracy_forces not_checked'.
  Handling of forces: Unphysical translation and rotation will be removed from forces.
  No accuracy limit for integral partition fn. given. Defaulting to  0.1000E-14.
  No threshold value for u(r) in integrations given. Defaulting to  0.1000E-05.
  No occupation type (smearing scheme) given. Defaulting to Gaussian broadening, width =  0.1000E-01 eV.
  The width will be adjusted in iteration number     2 of the first full s.c.f. cycle only.
  S.C.F. convergence parameters will be adjusted in iteration number     2 of the first full s.c.f. cycle only.
  No accuracy for occupation numbers given. Defaulting to  0.1000E-12.
  No threshold value for occupation numbers given. Defaulting to  0.0000E+00.
  No accuracy for fermi level given. Defaulting to  0.1000E-19.
  Maximum # of iterations to find E_F not set. Defaulting to  200.
  Preferred method for the eigenvalue solver ('KS_method') not specified in 'control.in'.
  Calling BLACS routine to test compilation state
  Since ScaLAPACK support is enabled, defaulting to ELPA (via ELSI).
  Will not use alltoall communication since running on < 1024 CPUs.
  Threshold for basis singularities not set.
  Default threshold for basis singularities:  0.1000E-04
  partition_type (choice of integration weights) for integrals was not specified.
  | Using a version of the partition function of Stratmann and coworkers ('stratmann_sparse').
  | At each grid point, the set of atoms used to build the partition table is smoothly restricted to
  | only those atoms whose free-atom density would be non-zero at that grid point.
  Partitioning for Hartree potential was not defined. Using partition_type for integrals.
  | Adjusted default value of keyword multip_moments_threshold to:       0.10000000E-11
  | This value may affect high angular momentum components of the Hartree potential in periodic systems.
  Spin handling was not defined in control.in. Defaulting to unpolarized case.
  Threshold for auxiliary basis singularities not set.
  Default threshold for auxiliary basis singularities:  0.1000E-04
  No q(lm)/r^(l+1) cutoff set for long-range Hartree potential.
  | Using default value of  0.100000E-09 .
  | Verify using the multipole_threshold keyword.
  Defaulting to new monopole extrapolation.
  Density update method: automatic selection selected.
  Coulomb operator: Defaulting to screening threshold for four-center integrals:   0.100000E-06
  Coulomb operator: Defaulting to screening threshold for Coulomb matrix:   0.100000E-09
  Coulomb operator: Defaulting to 'LVL_fast' resolution of identity - RI_type = LVL_fast 
  No other resolution of identity version is supported for periodic boundary conditions at present.
  Coulomb operator: Defaulting to logarithmic spherical Bessel transform integrals (use_logsbt .true.).
  Charge integration errors on the 3D integration grid will be compensated
  by explicit normalization and distribution of residual charges.
  Use the "compensate_multipole_errors" flag to change this behaviour.
  LVL not implemented with density matrix yet
  -> switching to transformed overlap
  LVL probably works better with logsbt
  Default to 1D ("use_logsbt") integrations for auxiliary 2-center integrals.
  Default onset of logarithmic r-grid for SBT is-38.000000000000
  Default onset of logarithmic k-grid for SBT is-25.000000000000
  Default range of logarithmic r- and k-grid for SBT is 45.000000000000
  Default number of logarithmic r- and k-grid for SBT is  4096
  Default of use_2d_corr is to use the efficient 2D distribution where possible
------------------------------------------------------------


------------------------------------------------------------
          Reading geometry description geometry.in.
------------------------------------------------------------
  Input structure read successfully.
  The structure contains        3 atoms,  and a total of         10.000 electrons.

  Input geometry:
  | No unit cell requested.
  | Atomic structure:
  |       Atom                x [A]            y [A]            z [A]
  |    1: Species O            -0.01909394        0.00000000        0.00000000
  |    2: Species H             0.76854697        0.00000000        0.54284399
  |    3: Species H             0.76854697        0.00000000       -0.54284399
  | The smallest distance between any two atoms is         0.95658654 AA.
  | The first atom of this pair is atom number                      1 .
  | The second atom of this pair is atom number                     2 .

  Number of empty states per atom not set in control.in - providing a guess from actual geometry.
  | Total number of empty states used during s.c.f. cycle:        6
  If you use a very high smearing, use empty_states (per atom!) in control.in to increase this value.

  Structure-dependent array size parameters: 
  | Maximum number of distinct radial functions  :       18
  | Maximum number of basis functions            :       69
  | Number of Kohn-Sham states (occupied + empty):       11
------------------------------------------------------------
  Setting Coulomb cut-width to  1.091868692359 * rcut.
  Setting Coulomb cutting radius rcut to  8.000000000000 A.

------------------------------------------------------------
          Preparing all fixed parts of the calculation.
------------------------------------------------------------
  Determining machine precision:
    2.225073858507201E-308
  Setting up grids for atomic and cluster calculations.

  Creating wave function, potential, and density for free atoms.

  Species: O

  List of occupied orbitals and eigenvalues:
    n    l              occ      energy [Ha]    energy [eV]
    1    0           2.0000       -18.927378      -515.0401
    2    0           2.0000        -0.880539       -23.9607
    2    1           4.0000        -0.331811        -9.0290


  Species: H

  List of occupied orbitals and eigenvalues:
    n    l              occ      energy [Ha]    energy [eV]
    1    0           1.0000        -0.238386        -6.4868


  Adding cutoff potential to free-atom effective potential.
  Creating fixed part of basis set: Ionic, confined, hydrogenic.
 
  O                    hydrogenic:
 
  List of hydrogenic basis orbitals: 
    n    l      effective z      eigenvalue [eV]  inner max. [A]     outer max. [A]     outer radius [A]   
    2    1         1.800000       -11.0118           1.178562           1.178562           5.432602
    3    2         7.600000       -87.3182           0.624125           0.624125           3.541477
    3    0         6.400000       -61.9209           0.061167           1.081902           4.306578
    4    3        11.600000      -114.4238           0.731631           0.731631           3.585037
    3    1         6.200000       -58.1113           0.255680           1.030270           4.306578
    3    2         5.600000       -47.4081           0.847233           0.847233           4.413171
    5    4        17.600000      -168.5799           0.749740           0.749740           3.372465
    1    0         0.750000        -7.6499           0.705284           0.705284           5.366593
 
 
  H                    hydrogenic:
 
  List of hydrogenic basis orbitals: 
    n    l      effective z      eigenvalue [eV]  inner max. [A]     outer max. [A]     outer radius [A]   
    2    0         2.100000       -14.9965           0.193243           1.317208           5.373006
    2    1         3.500000       -41.6672           0.602369           0.602369           4.056063
    1    0         0.850000        -9.8292           0.624871           0.624871           5.373006
    2    1         3.700000       -46.5653           0.573622           0.573622           3.910002
    2    0         1.200000        -4.5995           0.334980           2.228188           5.505995
    3    2         7.000000       -74.0753           0.680699           0.680699           3.769201
 
  Creating atomic-like basis functions for current effective potential.

  Species O                   :

  List of atomic basis orbitals and eigenvalues:
    n    l      energy [Ha]    energy [eV]    outer radius [A]
    1    0       -18.927378      -515.0401       1.415765
    2    0        -0.880539       -23.9607       5.048385
    2    1        -0.331811        -9.0290       5.301386


  Species H                   :

  List of atomic basis orbitals and eigenvalues:
    n    l      energy [Ha]    energy [eV]    outer radius [A]
    1    0        -0.238386        -6.4868       5.373006

  Assembling full basis from fixed parts.
  | Species O :   atomic orbital   1 s accepted.
  | Species O :    hydro orbital   3 s accepted.
  | Species O :   atomic orbital   2 s accepted.
  | Species O :    hydro orbital   1 s accepted.
  | Species O :    hydro orbital   3 p accepted.
  | Species O :   atomic orbital   2 p accepted.
  | Species O :    hydro orbital   2 p accepted.
  | Species O :    hydro orbital   3 d accepted.
  | Species O :    hydro orbital   3 d accepted.
  | Species O :    hydro orbital   4 f accepted.
  | Species O :    hydro orbital   5 g accepted.
  | Species H :   atomic orbital   1 s accepted.
  | Species H :    hydro orbital   2 s accepted.
  | Species H :    hydro orbital   1 s accepted.
  | Species H :    hydro orbital   2 s accepted.
  | Species H :    hydro orbital   2 p accepted.
  | Species H :    hydro orbital   2 p accepted.
  | Species H :    hydro orbital   3 d accepted.
 
  Basis size parameters after reduction:
  | Total number of radial functions:       18
  | Total number of basis functions :       69
 
  Per-task memory consumption for arrays in subroutine allocate_ext:
  |           5.997772MB.
  Testing on-site integration grid accuracy.
  |  Species  Function  <phi|h_atom|phi> (log., in eV)  <phi|h_atom|phi> (rad., in eV)
           1        1               -515.0401491148               -515.0401445497
           1        2                 15.1629302771                 15.1629233102
           1        3                -21.6127103295                -21.6127145449
           1        4                 14.4001435709                 14.4001765990
           1        5                 20.8862585187                 20.8862589491
           1        6                 -2.4803658578                 -2.4803665016
           1        7                 13.8586387760                 13.8586021622
           1        8                 45.8331828879                 45.8331828941
           1        9                 52.1851961049                 52.1851977023
           1       10                 85.4133898762                 85.4133899074
           1       11                142.1023296234                142.1023296272
           2       12                 -6.4870767962                 -6.4871688290
           2       13                 13.5032046589                 13.5028982997
           2       14                 32.8195184817                 32.8119941656
           2       15                 33.8513856511                 33.7670005767 ***
           2       16                 28.8544614965                 28.8544615203
           2       17                 59.6326952547                 59.6327656460
           2       18                 60.2719308513                 60.2719305949
 * Note: Onsite integrals marked "***" above are less accurate than
 * onsite_accuracy_threshold =    0.03000 eV. Usually, this is harmless.
 * When in doubt, tighten the "radial" and/or "radial_multiplier" flags to check.

  Preparing densities etc. for the partition functions (integrals / Hartree potential).

  Preparations completed.
  max(cpu_time)          :      0.151 s.
  Wall clock time (cpu1) :      0.153 s.
------------------------------------------------------------

------------------------------------------------------------
          Begin self-consistency loop: Initialization.

          Date     :  20201103, Time     :  200854.073
------------------------------------------------------------

  Initializing index lists of integration centers etc. from given atomic structure:
  | Number of centers in hartree potential         :         3
  | Number of centers in hartree multipole         :         3
  | Number of centers in electron density summation:         3
  | Number of centers in basis integrals           :         3
  | Number of centers in integrals                 :         3
  | Number of centers in hamiltonian               :         3
  * Using 40 tasks for Scalapack Eigenvalue solver.
  Detailed listing of tasks and assigned k-points:
  (for non-periodic systems, the "k-point" denotes an internal label only)
   Task     0 k-point     1 on ccs2009
   Task     1 k-point     1 on ccs2009
   Task     2 k-point     1 on ccs2009
   Task     3 k-point     1 on ccs2009
   Task     4 k-point     1 on ccs2009
   Task     5 k-point     1 on ccs2009
   Task     6 k-point     1 on ccs2009
   Task     7 k-point     1 on ccs2009
   Task     8 k-point     1 on ccs2009
   Task     9 k-point     1 on ccs2009
   Task    10 k-point     1 on ccs2009
   Task    11 k-point     1 on ccs2009
   Task    12 k-point     1 on ccs2009
   Task    13 k-point     1 on ccs2009
   Task    14 k-point     1 on ccs2009
   Task    15 k-point     1 on ccs2009
   Task    16 k-point     1 on ccs2009
   Task    17 k-point     1 on ccs2009
   Task    18 k-point     1 on ccs2009
   Task    19 k-point     1 on ccs2009
   Task    20 k-point     1 on ccs2009
   Task    21 k-point     1 on ccs2009
   Task    22 k-point     1 on ccs2009
   Task    23 k-point     1 on ccs2009
   Task    24 k-point     1 on ccs2009
   Task    25 k-point     1 on ccs2009
   Task    26 k-point     1 on ccs2009
   Task    27 k-point     1 on ccs2009
   Task    28 k-point     1 on ccs2009
   Task    29 k-point     1 on ccs2009
   Task    30 k-point     1 on ccs2009
   Task    31 k-point     1 on ccs2009
   Task    32 k-point     1 on ccs2009
   Task    33 k-point     1 on ccs2009
   Task    34 k-point     1 on ccs2009
   Task    35 k-point     1 on ccs2009
   Task    36 k-point     1 on ccs2009
   Task    37 k-point     1 on ccs2009
   Task    38 k-point     1 on ccs2009
   Task    39 k-point     1 on ccs2009
  Tasks:    40 split into      8 X      5 BLACS grid
  Calculating block size based on n_basis =           69  max_nprow =            8  max_npcol =            5
  ScaLAPACK block size set to:            8
  Allocating        0.002 MB for ovlp
  Allocating        0.002 MB for ham
  Allocating        0.002 MB for eigenvec
  Required Scalapack workspace - INTEGER:            1  REAL:             1
  Partitioning the integration grid into batches with parallel hashing+maxmin method.
  | Number of batches:      653
  | Maximal batch size:     193
  | Minimal batch size:      12
  | Average batch size:      75.096
  | Standard deviation of batch sizes:      15.877

  Integration load balanced across    40 MPI tasks.
  Work distribution over tasks is as follows:
  Task     0 has       1270 integration points.
  Task     1 has       1211 integration points.
  Task     2 has       1220 integration points.
  Task     3 has       1226 integration points.
  Task     4 has       1216 integration points.
  Task     5 has       1193 integration points.
  Task     6 has       1202 integration points.
  Task     7 has       1227 integration points.
  Task     8 has       1213 integration points.
  Task     9 has       1255 integration points.
  Task    10 has       1223 integration points.
  Task    11 has       1213 integration points.
  Task    12 has       1190 integration points.
  Task    13 has       1192 integration points.
  Task    14 has       1230 integration points.
  Task    15 has       1209 integration points.
  Task    16 has       1225 integration points.
  Task    17 has       1229 integration points.
  Task    18 has       1258 integration points.
  Task    19 has       1248 integration points.
  Task    20 has       1208 integration points.
  Task    21 has       1224 integration points.
  Task    22 has       1242 integration points.
  Task    23 has       1223 integration points.
  Task    24 has       1215 integration points.
  Task    25 has       1226 integration points.
  Task    26 has       1280 integration points.
  Task    27 has       1211 integration points.
  Task    28 has       1197 integration points.
  Task    29 has       1225 integration points.
  Task    30 has       1223 integration points.
  Task    31 has       1223 integration points.
  Task    32 has       1227 integration points.
  Task    33 has       1191 integration points.
  Task    34 has       1201 integration points.
  Task    35 has       1271 integration points.
  Task    36 has       1285 integration points.
  Task    37 has       1218 integration points.
  Task    38 has       1278 integration points.
  Task    39 has       1220 integration points.
  Initializing partition tables, free-atom densities, potentials, etc. across the integration grid (initialize_grid_storage).
  | initialize_grid_storage: Actual outermost partition radius vs. multipole_radius_free
  | (-- VB: in principle, multipole_radius_free should be larger, hence this output)
  | Species        1: Confinement radius =              6.000000000000000 AA, multipole_radius_free =              6.064445521808699 AA.
  | Species        1: outer_partition_radius set to              6.064445521808699 AA .
  | Species        2: Confinement radius =              6.000000000000000 AA, multipole_radius_free =              6.071692442739658 AA.
  | Species        2: outer_partition_radius set to              6.071692442739658 AA .
  | The sparse table of interatomic distances needs          0.09 kbyte instead of         0.07 kbyte of memory.
  | Using the partition_type stratmann_smoother will reduce your memory usage.
  | Net number of integration points:    49038
  | of which are non-zero points    :    43335
  Renormalizing the initial density to the exact electron count on the 3D integration grid.
  | Initial density: Formal number of electrons (from input files) :      10.0000000000
  | Integrated number of electrons on 3D grid     :      10.0000013678
  | Charge integration error                      :       0.0000013678
  | Normalization factor for density and gradient :       0.9999998632
  Renormalizing the free-atom superposition density to the exact electron count on the 3D integration grid.
  | Formal number of electrons (from input files) :      10.0000000000
  | Integrated number of electrons on 3D grid     :      10.0000013678
  | Charge integration error                      :       0.0000013678
  | Normalization factor for density and gradient :       0.9999998632
  Obtaining max. number of non-zero basis functions in each batch (get_n_compute_maxes).
  | Maximal number of non-zero basis functions:       69 in task     0
  | Maximal number of non-zero basis functions:       69 in task     1
  | Maximal number of non-zero basis functions:       69 in task     2
  | Maximal number of non-zero basis functions:       69 in task     3
  | Maximal number of non-zero basis functions:       69 in task     4
  | Maximal number of non-zero basis functions:       69 in task     5
  | Maximal number of non-zero basis functions:       69 in task     6
  | Maximal number of non-zero basis functions:       69 in task     7
  | Maximal number of non-zero basis functions:       69 in task     8
  | Maximal number of non-zero basis functions:       69 in task     9
  | Maximal number of non-zero basis functions:       69 in task    10
  | Maximal number of non-zero basis functions:       69 in task    11
  | Maximal number of non-zero basis functions:       69 in task    12
  | Maximal number of non-zero basis functions:       69 in task    13
  | Maximal number of non-zero basis functions:       69 in task    14
  | Maximal number of non-zero basis functions:       69 in task    15
  | Maximal number of non-zero basis functions:       69 in task    16
  | Maximal number of non-zero basis functions:       69 in task    17
  | Maximal number of non-zero basis functions:       69 in task    18
  | Maximal number of non-zero basis functions:       69 in task    19
  | Maximal number of non-zero basis functions:       69 in task    20
  | Maximal number of non-zero basis functions:       69 in task    21
  | Maximal number of non-zero basis functions:       69 in task    22
  | Maximal number of non-zero basis functions:       69 in task    23
  | Maximal number of non-zero basis functions:       69 in task    24
  | Maximal number of non-zero basis functions:       69 in task    25
  | Maximal number of non-zero basis functions:       69 in task    26
  | Maximal number of non-zero basis functions:       69 in task    27
  | Maximal number of non-zero basis functions:       69 in task    28
  | Maximal number of non-zero basis functions:       69 in task    29
  | Maximal number of non-zero basis functions:       69 in task    30
  | Maximal number of non-zero basis functions:       69 in task    31
  | Maximal number of non-zero basis functions:       69 in task    32
  | Maximal number of non-zero basis functions:       69 in task    33
  | Maximal number of non-zero basis functions:       69 in task    34
  | Maximal number of non-zero basis functions:       69 in task    35
  | Maximal number of non-zero basis functions:       69 in task    36
  | Maximal number of non-zero basis functions:       69 in task    37
  | Maximal number of non-zero basis functions:       69 in task    38
  | Maximal number of non-zero basis functions:       69 in task    39
  Selecting the method for density update.
  Loop over occupied states selected for charge density update.
  Allocating        0.006 MB for KS_eigenvector
  Integrating Hamiltonian matrix: batch-based integration.
  Time summed over all CPUs for integration: real work        0.180 s, elapsed        0.199 s
  Integrating overlap matrix.
  Time summed over all CPUs for integration: real work        0.072 s, elapsed        0.077 s
  Deallocating overlap matrix.

  Updating Kohn-Sham eigenvalues and eigenvectors using ELSI and the ELPA eigensolver.
  Overlap matrix is not singular
  | Lowest and highest eigenvalues :  0.2403E-03,  0.2991E+01
  Finished singularity check of overlap matrix
  | Time :     0.003 s
  Starting ELPA eigensolver
  Finished Cholesky decomposition
  | Time :     0.001 s
  Finished transformation to standard eigenproblem
  | Time :     0.001 s
  Finished solving standard eigenproblem
  | Time :     0.002 s
  Finished back-transformation of eigenvectors
  | Time :     0.000 s

  Obtaining occupation numbers and chemical potential using ELSI.
  | Chemical potential (Fermi level):    -4.54653370 eV
  Writing Kohn-Sham eigenvalues.

  State    Occupation    Eigenvalue [Ha]    Eigenvalue [eV]
      1       2.00000         -19.039303         -518.08581
      2       2.00000          -1.137274          -30.94680
      3       2.00000          -0.572273          -15.57234
      4       2.00000          -0.559122          -15.21449
      5       2.00000          -0.443181          -12.05957
      6       0.00000          -0.075893           -2.06514
      7       0.00000           0.011156            0.30357
      8       0.00000           0.087490            2.38071
      9       0.00000           0.102876            2.79940
     10       0.00000           0.120579            3.28112
     11       0.00000           0.132477            3.60488

  Highest occupied state (VBM) at    -12.05957015 eV
  | Occupation number:      2.00000000

  Lowest unoccupied state (CBM) at    -2.06514085 eV
  | Occupation number:      0.00000000

  Overall HOMO-LUMO gap:      9.99442930 eV.
  Using maximum angular momentum for SPE multipole expansion of l_max =    6
  | Actual lmax for multipole expansion to solve the SPE needed for the MPBE solver
   | species O                   :    6
   | species H                   :    6
  | Actual lmax used in the far field
  Calculating total energy contributions from superposition of free atom densities.

  Total energy components:
  | Sum of eigenvalues            :         -43.50230741 Ha       -1183.75801349 eV
  | XC energy correction          :          -9.03987904 Ha        -245.98762431 eV
  | XC potential correction       :          11.62390624 Ha         316.30258212 eV
  | Free-atom electrostatic energy:         -35.59341684 Ha        -968.54615120 eV
  | Hartree energy correction     :           0.00000000 Ha           0.00000000 eV
  | Entropy correction            :           0.00000000 Ha           0.00000000 eV
  | ---------------------------
  | Total energy                  :         -76.51169704 Ha       -2081.98920688 eV
  | Total energy, T -> 0          :         -76.51169704 Ha       -2081.98920688 eV  <-- do not rely on this value for anything but (periodic) metals
  | Electronic free energy        :         -76.51169704 Ha       -2081.98920688 eV

  Derived energy quantities:
  | Kinetic energy                :          75.77732644 Ha        2062.00596609 eV
  | Electrostatic energy          :        -143.24914444 Ha       -3898.00754866 eV
  | Energy correction for multipole
  | error in Hartree potential    :           0.00000000 Ha           0.00000000 eV
  | Sum of eigenvalues per atom                           :        -394.58600450 eV
  | Total energy (T->0) per atom                          :        -693.99640229 eV  <-- do not rely on this value for anything but (periodic) metals
  | Electronic free energy per atom                       :        -693.99640229 eV

  MPBE Solvation Additional Free Energies:
  | Free Energy in Electrolyte          :         -76.51169704 Ha       -2081.98920688 eV
  | Surface Area of Cavity            :           0.00000000 a.u.
  | Volume of Cavity             :           0.00000000 a.u.
  | Nonelectrostatic Free Energy             :           0.00000000 Ha
  | Additional Nonelstatic LPBE Solvation Energy:          0.00000000 Ha
  
  --------------------------------------------
  Constructing auxiliary basis (full product) ...
  
  Product basis:
  | charge radius: extent of product basis function
  | field radius: extent of its Coulomb potential
  | Species   l  charge radius    field radius  multipol momen
  |    O      0     2.043000 A      2.043000 A        1.960550E-17 a.u.
  |    O      7     3.498446 A      3.498446 A        2.436164E-14 a.u.
  |    O      6     3.585037 A      3.585037 A        4.134405E-15 a.u.
  |    O      6     3.718959 A      3.718959 A       -1.637045E-15 a.u.
  |    O      6     3.764702 A      3.764702 A       -4.267479E-15 a.u.
  |    O      4     3.811008 A      3.811008 A       -1.730877E-15 a.u.
  |    O      5     3.811008 A      3.811008 A        1.416843E-15 a.u.
  |    O      3     3.857883 A      3.857883 A        6.484639E-17 a.u.
  |    O      5     3.857883 A      3.857883 A        1.022360E-14 a.u.
  |    O      5     3.905335 A      3.905335 A        1.269833E-14 a.u.
  |    O      3     3.953371 A      3.953371 A       -4.554134E-16 a.u.
  |    O      3     3.953371 A      3.953371 A       -2.925766E-15 a.u.
  |    O      1     4.151495 A      4.151495 A        3.875623E-17 a.u.
  |    O      0     4.202559 A      4.202559 A        2.261309E-16 a.u.
  |    O      0     4.202559 A      4.202559 A        2.926324E-17 a.u.
  |    O      4     4.359549 A      4.359549 A       -2.110901E-16 a.u.
  |    O      3     4.413171 A      4.413171 A       -9.411592E-15 a.u.
  |    O      4     4.413171 A      4.413171 A        1.265856E-14 a.u.
  |    O      0     4.467453 A      4.467453 A        1.109598E-16 a.u.
  |    O      1     4.467453 A      4.467453 A       -7.451379E-17 a.u.
  |    O      4     4.467453 A      4.467453 A        1.059722E-14 a.u.
  |    O      4     4.467453 A      4.467453 A        1.032171E-14 a.u.
  |    O      1     4.578029 A      4.578029 A       -1.851045E-16 a.u.
  |    O      2     4.578029 A      4.578029 A       -1.166771E-16 a.u.
  |    O      1     4.634338 A      4.634338 A        7.547853E-17 a.u.
  |    O      1     4.634338 A      4.634338 A       -1.864975E-16 a.u.
  |    O      1     4.634338 A      4.634338 A       -1.177055E-16 a.u.
  |    O      3     4.691341 A      4.691341 A       -1.221476E-14 a.u.
  |    O      3     4.749044 A      4.749044 A       -2.234356E-15 a.u.
  |    O      3     4.749044 A      4.749044 A       -8.749503E-16 a.u.
  |    O      0     4.987044 A      4.987044 A        2.144869E-16 a.u.
  |    O      0     4.987044 A      4.987044 A        3.380914E-17 a.u.
  |    O      2     5.236971 A      5.236971 A        8.576853E-17 a.u.
  |    O      2     5.236971 A      5.236971 A        7.278658E-16 a.u.
  |    O      0     5.366593 A      5.432602 A        4.525815E-16 a.u.
  |    O      1     5.432602 A      5.432602 A       -6.654221E-16 a.u.
  |    O      1     5.432602 A      5.432602 A       -3.517546E-16 a.u.
  |    O      2     5.432602 A      5.432602 A        2.181196E-16 a.u.
  |    O      2     5.432602 A      5.432602 A       -1.429153E-15 a.u.
  |    O      2     5.432602 A      5.432602 A        1.107772E-15 a.u.
  |    O      0     5.432602 A      5.499423 A        1.062743E-16 a.u.
  |    O      1     5.432602 A      5.499423 A       -2.112109E-16 a.u.
  |    O      2     5.432602 A      5.499423 A       -2.477170E-15 a.u.
  |    O      2     5.432602 A      5.499423 A       -7.010101E-16 a.u.
  |    O      8     3.372465 A  2.352329E+01 A           53.933996 a.u.
  |    O      7     3.541477 A  4.005749E+01 A           85.792738 a.u.
  |    O      6     3.811008 A  8.478793E+01 A          215.734909 a.u.
  |    O      5     3.905335 A  1.625761E+02 A           66.915101 a.u.
  |    O      4     4.522403 A  5.113866E+02 A           67.070426 a.u.
  |    O      3     4.807458 A  2.586311E+03 A           45.405529 a.u.
  |    O      2     5.499423 A  2.884318E+04 A           12.885943 a.u.
  |    O      1     5.432602 A  2.965977E+06 A            2.499905 a.u.
  |    O      0     5.432602 A  4.308149E+12 A            0.647858 a.u.
  |    H      3     3.910002 A      3.910002 A       -8.941771E-16 a.u.
  |    H      3     3.910002 A      3.910002 A       -1.372309E-15 a.u.
  |    H      2     4.006780 A      4.006780 A        3.881382E-18 a.u.
  |    H      2     4.156456 A      4.156456 A       -8.736380E-16 a.u.
  |    H      2     4.156456 A      4.156456 A       -1.096925E-15 a.u.
  |    H      1     4.207581 A      4.207581 A        6.859757E-17 a.u.
  |    H      2     4.207581 A      4.207581 A       -6.091947E-16 a.u.
  |    H      1     4.259334 A      4.259334 A        1.704518E-16 a.u.
  |    H      2     4.259334 A      4.259334 A        1.442165E-15 a.u.
  |    H      1     4.311724 A      4.364758 A        2.088042E-16 a.u.
  |    H      1     4.527807 A      4.527807 A        3.537447E-17 a.u.
  |    H      1     4.472792 A      4.527807 A       -8.924234E-16 a.u.
  |    H      1     4.472792 A      4.527807 A        3.967362E-16 a.u.
  |    H      0     5.307721 A      5.307721 A       -2.666225E-17 a.u.
  |    H      0     5.307721 A      5.373006 A       -3.660690E-16 a.u.
  |    H      0     5.439094 A      5.505995 A       -2.628736E-16 a.u.
  |    H      0     5.439094 A      5.505995 A       -1.124322E-16 a.u.
  |    H      0     5.439094 A      5.505995 A       -6.794789E-17 a.u.
  |    H      0     5.439094 A      5.505995 A        3.405652E-16 a.u.
  |    H      0     5.505995 A      5.573719 A        6.227298E-17 a.u.
  |    H      0     5.505995 A      5.573719 A        1.835358E-16 a.u.
  |    H      4     3.723403 A  2.580116E+02 A            2.192707 a.u.
  |    H      3     3.958095 A  1.432892E+03 A            4.277983 a.u.
  |    H      2     4.259334 A  2.202637E+04 A            5.738728 a.u.
  |    H      1     4.472792 A  2.627400E+06 A            1.961735 a.u.
  |    H      0     5.505995 A  5.052187E+12 A            0.759746 a.u.

  | Shrink_full_auxil_basis : there are       79  radial auxiliary wave functions
                            accepted and     113 rejected.
  | Shrink_full_auxil_basis : there are totally                 517 partial auxiliary wave functions.
  prodbas_tasks_distribution_pbc not up to date - distributing tasks.
 
  | Maximal number of product basis functions per thread :    24    24
 
  | Number of local auxiliary basis funcs on node     0 :     24
  | Number of local auxiliary basis funcs on node     1 :     24
  | Number of local auxiliary basis funcs on node     2 :     24
  | Number of local auxiliary basis funcs on node     3 :     13
  | Number of local auxiliary basis funcs on node     4 :     12
  | Number of local auxiliary basis funcs on node     5 :     12
  | Number of local auxiliary basis funcs on node     6 :     12
  | Number of local auxiliary basis funcs on node     7 :     12
  | Number of local auxiliary basis funcs on node     8 :     12
  | Number of local auxiliary basis funcs on node     9 :     12
  | Number of local auxiliary basis funcs on node    10 :     12
  | Number of local auxiliary basis funcs on node    11 :     12
  | Number of local auxiliary basis funcs on node    12 :     12
  | Number of local auxiliary basis funcs on node    13 :     12
  | Number of local auxiliary basis funcs on node    14 :     12
  | Number of local auxiliary basis funcs on node    15 :     12
  | Number of local auxiliary basis funcs on node    16 :     12
  | Number of local auxiliary basis funcs on node    17 :     12
  | Number of local auxiliary basis funcs on node    18 :     12
  | Number of local auxiliary basis funcs on node    19 :     12
  | Number of local auxiliary basis funcs on node    20 :     12
  | Number of local auxiliary basis funcs on node    21 :     12
  | Number of local auxiliary basis funcs on node    22 :     12
  | Number of local auxiliary basis funcs on node    23 :     12
  | Number of local auxiliary basis funcs on node    24 :     12
  | Number of local auxiliary basis funcs on node    25 :     12
  | Number of local auxiliary basis funcs on node    26 :     12
  | Number of local auxiliary basis funcs on node    27 :     12
  | Number of local auxiliary basis funcs on node    28 :     12
  | Number of local auxiliary basis funcs on node    29 :     12
  | Number of local auxiliary basis funcs on node    30 :     12
  | Number of local auxiliary basis funcs on node    31 :     12
  | Number of local auxiliary basis funcs on node    32 :     12
  | Number of local auxiliary basis funcs on node    33 :     12
  | Number of local auxiliary basis funcs on node    34 :     12
  | Number of local auxiliary basis funcs on node    35 :     12
  | Number of local auxiliary basis funcs on node    36 :     12
  | Number of local auxiliary basis funcs on node    37 :     12
  | Number of local auxiliary basis funcs on node    38 :     12
  | Number of local auxiliary basis funcs on node    39 :     12
  Parallel distribution of product basis not up to date - distributing tasks.
 
  | Maximal number of product basis functions per thread :    24    24
 
  | Minimal total memory requirement for three-center overlap :       0.025 Gbs
  | Number of local auxiliary basis functions on task:      0    24
  | Number of local auxiliary basis functions on task:      1    24
  | Number of local auxiliary basis functions on task:      2    24
  | Number of local auxiliary basis functions on task:      3    13
  | Number of local auxiliary basis functions on task:      4    12
  | Number of local auxiliary basis functions on task:      5    12
  | Number of local auxiliary basis functions on task:      6    12
  | Number of local auxiliary basis functions on task:      7    12
  | Number of local auxiliary basis functions on task:      8    12
  | Number of local auxiliary basis functions on task:      9    12
  | Number of local auxiliary basis functions on task:     10    12
  | Number of local auxiliary basis functions on task:     11    12
  | Number of local auxiliary basis functions on task:     12    12
  | Number of local auxiliary basis functions on task:     13    12
  | Number of local auxiliary basis functions on task:     14    12
  | Number of local auxiliary basis functions on task:     15    12
  | Number of local auxiliary basis functions on task:     16    12
  | Number of local auxiliary basis functions on task:     17    12
  | Number of local auxiliary basis functions on task:     18    12
  | Number of local auxiliary basis functions on task:     19    12
  | Number of local auxiliary basis functions on task:     20    12
  | Number of local auxiliary basis functions on task:     21    12
  | Number of local auxiliary basis functions on task:     22    12
  | Number of local auxiliary basis functions on task:     23    12
  | Number of local auxiliary basis functions on task:     24    12
  | Number of local auxiliary basis functions on task:     25    12
  | Number of local auxiliary basis functions on task:     26    12
  | Number of local auxiliary basis functions on task:     27    12
  | Number of local auxiliary basis functions on task:     28    12
  | Number of local auxiliary basis functions on task:     29    12
  | Number of local auxiliary basis functions on task:     30    12
  | Number of local auxiliary basis functions on task:     31    12
  | Number of local auxiliary basis functions on task:     32    12
  | Number of local auxiliary basis functions on task:     33    12
  | Number of local auxiliary basis functions on task:     34    12
  | Number of local auxiliary basis functions on task:     35    12
  | Number of local auxiliary basis functions on task:     36    12
  | Number of local auxiliary basis functions on task:     37    12
  | Number of local auxiliary basis functions on task:     38    12
  | Number of local auxiliary basis functions on task:     39    12
  | 2D aux task distribution:      5 X      8
  | 2D block size (nb_aux_2d):     64
  -----------------------------------------
  --- Initializing Fock matrix calculations
  -----------------------------------------
  screening_threshold (crit_val) =  0.000000100000
  coul_mat_threshold =  0.000000000100
 Trying to make the workload more even by internally splitting atoms into fractions
 Atom:            1  Basis/atom:    39.0000000000000
 Atom:            2  Basis/atom:    15.0000000000000
 Atom:            3  Basis/atom:    15.0000000000000
 There are now:            4  atoms instead of:            3
       new       old  bas/atom
         1         1        20
         2         1        19
         3         2        15
         4         3        15
  Number of super-cells in X Y Z:       0       0       0
  Number of atoms pairs total:           16
  Atom pair distribution:
  Cell:        0       0       0 atom pairs:       16
  Number of atoms pairs in BvK cells:           16
  Initializing work distribution for fock matrix calculation
  -----------------------------------------------------
  Dividing atoms among tasks for exact exchange energy:
  Atom:     1 Weight:   337.00
  Atom:     2 Weight:   337.00
  Atom:     3 Weight:   90.000
  Atom:     4 Weight:   90.000

  Average weight per task:   21.350

  Number of "big" (above average) atoms  :     4
  Number of "small" (below average) atoms:     0
  All atoms have above average work per task
  Atoms will be divided among tasks to get best load distribution

  Atom division among tasks:
  Atom     1: (initial) task:     0, # of tasks:    15
  Atom     2: (initial) task:    15, # of tasks:    15
  Atom     3: (initial) task:    30, # of tasks:     5
  Atom     4: (initial) task:    35, # of tasks:     5

  -----------------------------------------------------
  Task     0 : Coulomb matrix distribution changed.
  Task     1 : Coulomb matrix distribution changed.
  Task     2 : Coulomb matrix distribution changed.
  Task     3 : Coulomb matrix distribution changed.
  Task     4 : Coulomb matrix distribution changed.
  Task     5 : Coulomb matrix distribution changed.
  Task     6 : Coulomb matrix distribution changed.
  Task     7 : Coulomb matrix distribution changed.
  Task     8 : Coulomb matrix distribution changed.
  Task     9 : Coulomb matrix distribution changed.
  Task    10 : Coulomb matrix distribution changed.
  Task    11 : Coulomb matrix distribution changed.
  Task    12 : Coulomb matrix distribution changed.
  Task    13 : Coulomb matrix distribution changed.
  Task    14 : Coulomb matrix distribution changed.
  Task    15 : Coulomb matrix distribution changed.
  Task    16 : Coulomb matrix distribution changed.
  Task    17 : Coulomb matrix distribution changed.
  Task    18 : Coulomb matrix distribution changed.
  Task    19 : Coulomb matrix distribution changed.
  Task    20 : Coulomb matrix distribution changed.
  Task    21 : Coulomb matrix distribution changed.
  Task    22 : Coulomb matrix distribution changed.
  Task    23 : Coulomb matrix distribution changed.
  Task    24 : Coulomb matrix distribution changed.
  Task    25 : Coulomb matrix distribution changed.
  Task    26 : Coulomb matrix distribution changed.
  Task    27 : Coulomb matrix distribution changed.
  Task    28 : Coulomb matrix distribution changed.
  Task    29 : Coulomb matrix distribution changed.
  Task    30 : Coulomb matrix distribution changed.
  Task    31 : Coulomb matrix distribution changed.
  Task    32 : Coulomb matrix distribution changed.
  Task    33 : Coulomb matrix distribution changed.
  Task    34 : Coulomb matrix distribution changed.
  Task    35 : Coulomb matrix distribution changed.
  Task    36 : Coulomb matrix distribution changed.
  Task    37 : Coulomb matrix distribution changed.
  Task    38 : Coulomb matrix distribution changed.
  Task    39 : Coulomb matrix distribution changed.
  Overall Coulomb matrix distribution changed.
  Coulomb matrix subdivision:
  Task     0 atom     1 has Coulomb matrix rows          1 to         22
  Task      0: my_n_atoms:      1 my_atom_list:      1
  Task      1: my_n_atoms:      1 my_atom_list:      1
  Task      2: my_n_atoms:      1 my_atom_list:      1
  Task      3: my_n_atoms:      1 my_atom_list:      1
  Task      4: my_n_atoms:      1 my_atom_list:      1
  Task      5: my_n_atoms:      1 my_atom_list:      1
  Task      6: my_n_atoms:      1 my_atom_list:      1
  Task      7: my_n_atoms:      1 my_atom_list:      1
  Task      8: my_n_atoms:      1 my_atom_list:      1
  Task      9: my_n_atoms:      1 my_atom_list:      1
  Task     10: my_n_atoms:      1 my_atom_list:      1
  Task     11: my_n_atoms:      1 my_atom_list:      1
  Task     12: my_n_atoms:      1 my_atom_list:      1
  Task     13: my_n_atoms:      1 my_atom_list:      1
  Task     14: my_n_atoms:      1 my_atom_list:      1
  Task     15: my_n_atoms:      1 my_atom_list:      2
  Task     16: my_n_atoms:      1 my_atom_list:      2
  Task     17: my_n_atoms:      1 my_atom_list:      2
  Task     18: my_n_atoms:      1 my_atom_list:      2
  Task     19: my_n_atoms:      1 my_atom_list:      2
  Task     20: my_n_atoms:      1 my_atom_list:      2
  Task     21: my_n_atoms:      1 my_atom_list:      2
  Task     22: my_n_atoms:      1 my_atom_list:      2
  Task     23: my_n_atoms:      1 my_atom_list:      2
  Task     24: my_n_atoms:      1 my_atom_list:      2
  Task     25: my_n_atoms:      1 my_atom_list:      2
  Task     26: my_n_atoms:      1 my_atom_list:      2
  Task     27: my_n_atoms:      1 my_atom_list:      2
  Task     28: my_n_atoms:      1 my_atom_list:      2
  Task     29: my_n_atoms:      1 my_atom_list:      2
  Task     30: my_n_atoms:      1 my_atom_list:      3
  Task     31: my_n_atoms:      1 my_atom_list:      3
  Task     32: my_n_atoms:      1 my_atom_list:      3
  Task     33: my_n_atoms:      1 my_atom_list:      3
  Task     34: my_n_atoms:      1 my_atom_list:      3
  Task     35: my_n_atoms:      1 my_atom_list:      4
  Task     36: my_n_atoms:      1 my_atom_list:      4
  Task     37: my_n_atoms:      1 my_atom_list:      4
  Task     38: my_n_atoms:      1 my_atom_list:      4
  Task     39: my_n_atoms:      1 my_atom_list:      4
  Task      0: my_n_atom_pairs:      1
  Task      1: my_n_atom_pairs:      1
  Task      2: my_n_atom_pairs:      1
  Task      3: my_n_atom_pairs:      1
  Task      4: my_n_atom_pairs:      0
  Task      5: my_n_atom_pairs:      0
  Task      6: my_n_atom_pairs:      0
  Task      7: my_n_atom_pairs:      0
  Task      8: my_n_atom_pairs:      0
  Task      9: my_n_atom_pairs:      0
  Task     10: my_n_atom_pairs:      0
  Task     11: my_n_atom_pairs:      0
  Task     12: my_n_atom_pairs:      0
  Task     13: my_n_atom_pairs:      0
  Task     14: my_n_atom_pairs:      0
  Task     15: my_n_atom_pairs:      1
  Task     16: my_n_atom_pairs:      1
  Task     17: my_n_atom_pairs:      1
  Task     18: my_n_atom_pairs:      1
  Task     19: my_n_atom_pairs:      0
  Task     20: my_n_atom_pairs:      0
  Task     21: my_n_atom_pairs:      0
  Task     22: my_n_atom_pairs:      0
  Task     23: my_n_atom_pairs:      0
  Task     24: my_n_atom_pairs:      0
  Task     25: my_n_atom_pairs:      0
  Task     26: my_n_atom_pairs:      0
  Task     27: my_n_atom_pairs:      0
  Task     28: my_n_atom_pairs:      0
  Task     29: my_n_atom_pairs:      0
  Task     30: my_n_atom_pairs:      1
  Task     31: my_n_atom_pairs:      1
  Task     32: my_n_atom_pairs:      1
  Task     33: my_n_atom_pairs:      1
  Task     34: my_n_atom_pairs:      0
  Task     35: my_n_atom_pairs:      1
  Task     36: my_n_atom_pairs:      1
  Task     37: my_n_atom_pairs:      1
  Task     38: my_n_atom_pairs:      1
  Task     39: my_n_atom_pairs:      0
  Memory needs for ovlp3fn and Coulomb matrix:
  For Coulomb matrix, this is the upper limit if no compression occurs
  ovlp3fn:        4.314 MB, Coulomb:        0.364 MB
Size of ovlp3fn for atom     400       1     337
  --- Initializing LVL triples
  | Storage requirements for basis-basbas products (processor-local):
  |   Species O: n_prodsfn:  1094; storage:       34.19 MiB.
  |   Species H: n_prodsfn:   243; storage:        7.59 MiB.

  --- Initializing Coulomb matrix calculations
  Preparing TB like auxiliary 2-center Coulomb matrix
  SBT integration errors (all should be 'small'):
  large logFT aliasing -> increase N/lnrange
  large SBT aliasing -> decrease lnk0 & increase lnk0+lnrange
  large SBT ringing -> decrease lnr0 & increase lnr0+lnrange
  |            El't  L: logFT-al.   small-k   large-k   small-r   large-r
  | Need to store  6748 splines of   227 points taking      12080 KiB.
  | Spline reduction from  4096 to   227 points by (cutting and)     1 x coarsening gives error:  0.00E+00
  Finished with initialize_tb_auxmat/lvl_triples, time:        0.229
  --- Calculating OVLP3FN
  Allocating        2.057 MB for coeff_3fn
  Allocating        6.171 MB for d_coeff_3fn
  --- Done calculating OVLP3FN, time:        0.809
  Atomic logSBT for LVL-triples                :  max(cpu_time)    wall_clock(cpu1)
  | Multiplication with kernel                 :        0.008 s           0.000 s
  | Main matrix multiplication                 :        0.183 s           0.016 s
  | Analytic angular integration               :        0.005 s           0.000 s
  | Kernel construction                        :        0.004 s           0.000 s
  | Overall 2-center overlap time              :        0.219 s           0.038 s
  | 3-center preparation multiplications       :        0.049 s           0.049 s
  | 3-center preparation SBTs                  :        0.434 s           0.426 s
  | 3-center combinations                      :        0.263 s           0.227 s
  | Overal 3-center time                       :        0.713 s           0.709 s
  | LVL initialization                         :        0.097 s           0.098 s
  | Whole LVL-triples                          :        0.097 s           0.098 s

Compare n_pairs with n_super       0       1
  --- Done getting norm of OVLP3FN, time:        0.001
  --- Calculating Coulomb matrices
  Allocating        0.866 MB for aux_mat
  Allocating        2.599 MB for d_aux_mat
  Time to calculate Coulomb Matrices   :        0.012
  Number of Coulomb matrix elements:
  | Task     0 total:          45496, > threshold:           7775, stored:          17226
  | Task     1 total:          45496, > threshold:           8320, stored:          16984
  | Task     2 total:          47564, > threshold:           8442, stored:          19090
  | Task     3 total:          45496, > threshold:           8140, stored:          18040
  | Task     4 total:          47564, > threshold:           8664, stored:          18860
  | Task     5 total:          45496, > threshold:           8294, stored:          19118
  | Task     6 total:          47564, > threshold:           8599, stored:          19619
  | Task     7 total:          45496, > threshold:           8395, stored:          18678
  | Task     8 total:          47564, > threshold:           8740, stored:          18538
  | Task     9 total:          45496, > threshold:           8531, stored:          18744
  | Task    10 total:          47564, > threshold:           8753, stored:          18492
  | Task    11 total:          45496, > threshold:           8014, stored:          17116
  | Task    12 total:          47564, > threshold:           8382, stored:          17710
  | Task    13 total:          45496, > threshold:           8220, stored:          17864
  | Task    14 total:          47564, > threshold:           8826, stored:          20746
  | Task    15 total:          45496, > threshold:           7775, stored:          17226
  | Task    16 total:          45496, > threshold:           8320, stored:          16984
  | Task    17 total:          47564, > threshold:           8442, stored:          19090
  | Task    18 total:          45496, > threshold:           8140, stored:          18040
  | Task    19 total:          47564, > threshold:           8664, stored:          18860
  | Task    20 total:          45496, > threshold:           8294, stored:          19118
  | Task    21 total:          47564, > threshold:           8599, stored:          19619
  | Task    22 total:          45496, > threshold:           8395, stored:          18678
  | Task    23 total:          47564, > threshold:           8740, stored:          18538
  | Task    24 total:          45496, > threshold:           8531, stored:          18744
  | Task    25 total:          47564, > threshold:           8753, stored:          18492
  | Task    26 total:          45496, > threshold:           8014, stored:          17116
  | Task    27 total:          47564, > threshold:           8382, stored:          17710
  | Task    28 total:          45496, > threshold:           8220, stored:          17864
  | Task    29 total:          47564, > threshold:           8826, stored:          20746
  | Task    30 total:          37224, > threshold:          13474, stored:          31482
  | Task    31 total:          37224, > threshold:          13811, stored:          31230
  | Task    32 total:          37224, > threshold:          13986, stored:          31230
  | Task    33 total:          37224, > threshold:          14001, stored:          31194
  | Task    34 total:          37224, > threshold:          13705, stored:          32202
  | Task    35 total:          37224, > threshold:          13474, stored:          31482
  | Task    36 total:          37224, > threshold:          13811, stored:          31230
  | Task    37 total:          37224, > threshold:          13986, stored:          31230
  | Task    38 total:          37224, > threshold:          14001, stored:          31194
  | Task    39 total:          37224, > threshold:          13705, stored:          32202
  --- Done init_fock_matrix_calculations_old
  Atomic logSBT for 2-center Coulomb matrix    :  max(cpu_time)    wall_clock(cpu1)
  | TB initialization                          :        0.131 s           0.131 s
  | TB usage                                   :        0.010 s           0.009 s

  Calculating non-local Hartree-Fock exchange by two-center RI (RI-LVL).
  screening_threshold (crit_val) =  0.000000100000
  Allocating        0.011 MB for dm_cols
  Allocating        0.355 MB for ovlp3fn_rcv
  Allocating        0.011 MB for fock_matrix
  Allocating        0.001 MB for fock_matrix_row
  Exact exchange progress report - outermost basis function loop i_basis_r1: 1 ..      69
  |        1         2         3         4         5         6         7         8         9        10
[...]
 hartree_delta_energy   1.69658696818775     
 lpb_zero_energy   2.31884655597251     
 hartree_delta_energy   1.69658696818775     
 lpb_zero_energy   2.31884655597251     
 hartree_delta_energy   1.69658696818775     
 lpb_zero_energy   2.31884655597251     
 hartree_delta_energy   1.69658696818775     
 lpb_zero_energy   2.31884655597251     
 hartree_delta_energy   1.69658696818775     
 lpb_zero_energy   2.31884655597251     
 hartree_delta_energy   1.69658696818775     
 lpb_zero_energy   2.31884655597251     
 hartree_delta_energy   1.69658696818775     
 lpb_zero_energy   2.31884655597251     
 hartree_delta_energy   1.69658696818775     
 lpb_zero_energy   2.31884655597251     
 hartree_delta_energy   1.69658696818775     
 lpb_zero_energy   2.31884655597251     
 hartree_delta_energy   1.69658696818775     
 lpb_zero_energy   2.31884655597251     
 hartree_delta_energy   1.69658696818775     
 lpb_zero_energy   2.31884655597251     
 hartree_delta_energy   1.69658696818775     
 lpb_zero_energy   2.31884655597251     
 hartree_delta_energy   1.69658696818775     
 lpb_zero_energy   2.31884655597251     
 hartree_delta_energy   1.69658696818775     
 lpb_zero_energy   2.31884655597251     
 hartree_delta_energy   1.69658696818775     
 lpb_zero_energy   2.31884655597251     
 hartree_delta_energy   1.69658696818775     
 lpb_zero_energy   2.31884655597251     
  Time summed over all CPUs for integration: real work        0.176 s, elapsed        0.192 s
  Calculating non-local Hartree-Fock exchange by two-center RI (RI-LVL).
  screening_threshold (crit_val) =  0.000000100000
  Allocating        0.011 MB for dm_cols
  Allocating        0.355 MB for ovlp3fn_rcv
  Allocating        0.011 MB for fock_matrix
  Allocating        0.001 MB for fock_matrix_row
  Exact exchange progress report - outermost basis function loop i_basis_r1: 1 ..      69
  |        1         2         3         4         5         6         7         8         9        10
  |       11        12        13        14        15        16        17        18        19        20
  |       21        22        23        24        25        26        27        28        29        30
  |       31        32        33        34        35        36        37        38        39        40
  |       41        42        43        44        45        46        47        48        49        50
  |       51        52        53        54        55        56        57        58        59        60
  |       61        62        63        64        65        66        67        68        69  
  Full exact exchange energy:     243.540002978263 eV.
  Times            DM_x_o3fn   CM_x_o3fn    Products        Sync   Imbalance    Pre/Post       Other  Total calc
  | Times    0:        0.004       0.006       0.007       0.051       0.017       0.001       0.010       0.095
  | Times    1:        0.004       0.005       0.006       0.049       0.022       0.001       0.009       0.095
  | Times    2:        0.003       0.006       0.016       0.050       0.011       0.001       0.008       0.095
  | Times    3:        0.004       0.006       0.016       0.049       0.011       0.001       0.008       0.095
  | Times    4:        0.000       0.007       0.004       0.050       0.027       0.001       0.007       0.095
  | Times    5:        0.000       0.007       0.004       0.049       0.027       0.001       0.008       0.095
  | Times    6:        0.000       0.007       0.004       0.050       0.027       0.001       0.007       0.095
  | Times    7:        0.000       0.007       0.004       0.049       0.027       0.001       0.008       0.095
  | Times    8:        0.000       0.006       0.004       0.050       0.027       0.001       0.007       0.095
  | Times    9:        0.000       0.007       0.003       0.049       0.027       0.001       0.008       0.095
  | Times   10:        0.000       0.006       0.003       0.050       0.028       0.001       0.007       0.095
  | Times   11:        0.000       0.006       0.003       0.049       0.028       0.001       0.008       0.095
  | Times   12:        0.000       0.005       0.004       0.050       0.028       0.001       0.007       0.095
  | Times   13:        0.000       0.006       0.004       0.049       0.028       0.001       0.008       0.095
  | Times   14:        0.000       0.007       0.004       0.048       0.028       0.001       0.007       0.095
  | Times   15:        0.004       0.006       0.006       0.054       0.016       0.001       0.009       0.095
  | Times   16:        0.003       0.005       0.006       0.054       0.018       0.001       0.008       0.095
  | Times   17:        0.003       0.006       0.015       0.055       0.008       0.001       0.008       0.095
  | Times   18:        0.003       0.006       0.015       0.054       0.008       0.001       0.008       0.095
  | Times   19:        0.000       0.006       0.003       0.056       0.021       0.001       0.008       0.095
  | Times   20:        0.000       0.007       0.003       0.055       0.023       0.001       0.007       0.095
  | Times   21:        0.000       0.006       0.003       0.055       0.024       0.001       0.007       0.095
  | Times   22:        0.000       0.006       0.003       0.054       0.024       0.001       0.007       0.095
  | Times   23:        0.000       0.006       0.003       0.054       0.025       0.001       0.007       0.095
  | Times   24:        0.000       0.006       0.003       0.053       0.025       0.001       0.007       0.095
  | Times   25:        0.000       0.006       0.003       0.054       0.025       0.001       0.007       0.095
  | Times   26:        0.000       0.005       0.003       0.053       0.026       0.001       0.007       0.095
  | Times   27:        0.000       0.005       0.003       0.054       0.025       0.001       0.007       0.095
  | Times   28:        0.000       0.006       0.003       0.053       0.025       0.001       0.007       0.095
  | Times   29:        0.000       0.007       0.003       0.052       0.025       0.001       0.007       0.095
  | Times   30:        0.001       0.015       0.004       0.041       0.030       0.001       0.004       0.095
  | Times   31:        0.001       0.015       0.006       0.041       0.028       0.001       0.004       0.095
  | Times   32:        0.001       0.015       0.006       0.041       0.029       0.001       0.004       0.095
  | Times   33:        0.001       0.015       0.005       0.041       0.029       0.001       0.004       0.095
  | Times   34:        0.000       0.015       0.003       0.041       0.032       0.001       0.004       0.095
  | Times   35:        0.001       0.015       0.004       0.041       0.030       0.001       0.004       0.095
  | Times   36:        0.001       0.015       0.006       0.041       0.028       0.001       0.004       0.095
  | Times   37:        0.001       0.015       0.006       0.041       0.028       0.001       0.004       0.095
  | Times   38:        0.001       0.015       0.005       0.041       0.029       0.001       0.004       0.095
  | Times   39:        0.000       0.015       0.003       0.041       0.032       0.001       0.004       0.095
  | Times  sum:        0.033       0.334       0.211       1.959       0.979       0.028       0.266       3.811

  Decomposition of Other based on code block (only on MPI task 0):
  Times             Block #1    Block #2    Block #3    Block #4    Block #5    Block #6    Block #7    Block #8
  | Times    0:        0.000       0.000       0.002       0.000       0.000       0.000       0.003       0.000

  Times             Block #9   Block #10   Block #11   Block #12   Block #13   Block #14   Block #15   Block #16
  | Times    0:        0.000       0.001       0.001       0.001       0.002       0.000       0.000       0.000

  Times            Block Sum    Expected
  | Times    0:        0.010       0.010

  Updating Kohn-Sham eigenvalues and eigenvectors using ELSI and the ELPA eigensolver.
  Starting ELPA eigensolver
  Finished transformation to standard eigenproblem
  | Time :     0.000 s
  Finished solving standard eigenproblem
  | Time :     0.001 s
  Finished back-transformation of eigenvectors
  | Time :     0.001 s

  Obtaining occupation numbers and chemical potential using ELSI.
  | Chemical potential (Fermi level):    -2.04043589 eV
  Highest occupied state (VBM) at     -8.97379990 eV
  | Occupation number:      2.00000000

  Lowest unoccupied state (CBM) at     0.97540692 eV
  | Occupation number:      0.00000000

  Overall HOMO-LUMO gap:      9.94920682 eV.

  Total energy components:
  | Sum of eigenvalues            :         -43.09766161 Ha       -1172.74704124 eV
  | XC energy correction          :          -4.80219506 Ha        -130.67437628 eV
  | XC potential correction       :           9.06135141 Ha         246.57191722 eV
  | Free-atom electrostatic energy:         -35.59341684 Ha        -968.54615120 eV
  | Hartree energy correction     :          -2.00771676 Ha         -54.63275278 eV
  | Entropy correction            :           0.00000000 Ha           0.00000000 eV
  | ---------------------------
  | Total energy                  :         -76.44857249 Ha       -2080.27150059 eV
  | Total energy, T -> 0          :         -76.44857249 Ha       -2080.27150059 eV  <-- do not rely on this value for anything but (periodic) metals
  | Electronic free energy        :         -76.44857249 Ha       -2080.27150059 eV

  Derived energy quantities:
  | Kinetic energy                :          76.39283159 Ha        2078.75471341 eV
  | Electrostatic energy          :        -143.56424372 Ha       -3906.58183636 eV
  | Energy correction for multipole
  | error in Hartree potential    :          -0.00198474 Ha          -0.05400763 eV
  | Sum of eigenvalues per atom                           :        -390.91568041 eV
  | Total energy (T->0) per atom                          :        -693.42383353 eV  <-- do not rely on this value for anything but (periodic) metals
  | Electronic free energy per atom                       :        -693.42383353 eV

  MPBE Solvation Additional Free Energies:
  | Free Energy in Electrolyte          :         -76.44568792 Ha       -2080.19300732 eV
  | Surface Area of Cavity            :         178.19408210 a.u.
  | Volume of Cavity             :         238.58413458 a.u.
  | Nonelectrostatic Free Energy             :           0.00288457 Ha
  | Additional Nonelstatic LPBE Solvation Energy:          0.00000000 Ha

  atomic forces [eV/Ang]:
  -----------------------
  atom #    1
   Hellmann-Feynman              : -0.185698E+02  0.223060E-12 -0.128710E-08
   Ionic forces                  :  0.000000E+00  0.000000E+00  0.000000E+00
   Multipole                     : -0.199339E+00  0.195444E-12 -0.666889E-10
   Hartree-Fock exchange         :  0.112515E+02 -0.225321E-10 -0.975675E-09
   Pulay + GGA + MPB, Gnonmf     :  0.875358E+01 -0.976792E-11 -0.578396E-09
   ----------------------------------------------------------------
   Total forces(   1)            :  0.123594E+01 -0.318815E-10 -0.290786E-08
  atom #    2
   Hellmann-Feynman              : -0.572985E+00  0.169094E-11  0.364601E+01
   Ionic forces                  :  0.000000E+00  0.000000E+00  0.000000E+00
   Multipole                     : -0.620961E-01 -0.129623E-14  0.228999E-01
   Hartree-Fock exchange         : -0.562573E+01 -0.163839E-11 -0.298617E+01
   Pulay + GGA + MPB, Gnonmf     :  0.549511E+01 -0.438012E-10  0.299240E+01
   ----------------------------------------------------------------
   Total forces(   2)            : -0.765700E+00 -0.437500E-10  0.367514E+01
  atom #    3
   Hellmann-Feynman              : -0.572985E+00 -0.119717E-11 -0.364601E+01
   Ionic forces                  :  0.000000E+00  0.000000E+00  0.000000E+00
   Multipole                     : -0.620961E-01  0.383016E-14 -0.228999E-01
   Hartree-Fock exchange         : -0.562573E+01  0.241705E-10  0.298617E+01
   Pulay + GGA + MPB, Gnonmf     :  0.549511E+01  0.481298E-10 -0.299240E+01
   ----------------------------------------------------------------
   Total forces(   3)            : -0.765700E+00  0.711070E-10 -0.367514E+01


  Self-consistency convergence accuracy:
  | Change of charge density      :  0.7917E-08
  | Change of sum of eigenvalues  :  0.2731E-06 eV
  | Change of total energy        : -0.1172E-06 eV
  | Change of forces              :  0.1125E+02 eV/A

  End self-consistency iteration #    40       :  max(cpu_time)    wall_clock(cpu1)
  | Time for this iteration                    :        0.426 s           0.421 s
  | Charge density & force component update    :        0.022 s           0.016 s
  | Density mixing                             :        0.001 s           0.001 s
  | Hartree multipole update                   :        0.001 s           0.001 s
  | Hartree multipole summation                :        0.298 s           0.298 s
  | Integration                                :        0.006 s           0.006 s
  | Fock matrix evaluation                     :        0.095 s           0.096 s
  | Solution of K.-S. eqns.                    :        0.002 s           0.002 s
  | Total energy evaluation                    :        0.000 s           0.000 s

  Partial memory accounting:
  | Current value for overall tracked memory usage:
  |   Minimum:        0.163 MB (on task 11)
  |   Maximum:        4.292 MB (on task  0)
  |   Average:        1.037 MB
  | Peak value for overall tracked memory usage:
  |   Minimum:        8.254 MB (on task  9 after allocating d_coeff_3fn)
  |   Maximum:       12.383 MB (on task  0 after allocating d_coeff_3fn)
  |   Average:        9.093 MB
  | Largest tracked array allocation so far:
  |   Minimum:        6.171 MB (d_coeff_3fn on task  0)
  |   Maximum:        6.171 MB (d_coeff_3fn on task  0)
  |   Average:        6.171 MB
  Note:  These values currently only include a subset of arrays which are explicitly tracked.
  The "true" memory usage will be greater.
------------------------------------------------------------
  ------------------------------------------------------------
  Computing monopole / dipole moments
  | Total electronic charge [e]         :          0.100000000000000E+02
  | Total ionic charge [e]              :          0.100000000000000E+02
  | Total charge [e]                    :          0.000000000000000E+00
  | Total dipole moment [eAng]          :          0.639121508038637E+00        -0.462806845266672E-13        -0.166440124645479E-10
  | Absolute dipole moment              :          0.639121508038637E+00 eAng              /                   0.306935300299135E+01 Debye  .
  Removing unitary transformations (pure translations, rotations) from forces on atoms.
  Atomic forces before filtering:
  | Net force on center of mass :  -0.295458E+00 -0.452451E-11 -0.925385E-10 eV/A
  | Net torque on center of mass:   0.623494E-10  0.291460E-08  0.239233E-10 eV
  Atomic forces after filtering:
  | Net force on center of mass :   0.178406E-15  0.129808E-26  0.000000E+00 eV/A
  | Net torque on center of mass:   0.241696E-24  0.000000E+00  0.187443E-26 eV

  Energy and forces in a compact form:
  | Total energy uncorrected      :         -0.208027150059265E+04 eV
  | Total energy corrected        :         -0.208027150059265E+04 eV  <-- do not rely on this value for anything but (periodic) metals
  | Electronic free energy        :         -0.208027150059265E+04 eV
  Total atomic forces (unitary forces cleaned) [eV/Ang]:
  |    1          0.133442867370350E+01         -0.194711309587837E-26         -0.440296458147765E-08
  |    2         -0.667214333818881E+00         -0.220997336382195E-24          0.367513658204194E+01
  |    3         -0.667214339884623E+00          0.224242524875325E-24         -0.367513657763897E+01

  ------------------------------------ 
  Start decomposition of the XC Energy 
  ------------------------------------ 
  X and C from original XC functional choice 
  Hartree-Fock Energy :         -2.237482652 Ha            -60.885000745 eV
  X Energy            :         -8.948531357 Ha           -243.501927477 eV
  C Energy            :         -0.328629006 Ha             -8.942450227 eV
  Total XC Energy     :         -9.277160363 Ha           -252.444377705 eV
  ------------------------------------ 
  LDA X and C from self-consistent density 
  X Energy LDA        :         -8.133215339 Ha           -221.316049824 eV
  C Energy LDA        :         -0.661451830 Ha            -17.999020070 eV
  ------------------------------------ 
  End decomposition of the XC Energy 
  ------------------------------------ 

------------------------------------------------------------

 ***********************************************************
 *
 * WARNING! SELF-CONSISTENCY CYCLE DID NOT CONVERGE
 * USING YOUR PRESELECTED ACCURACY CRITERIA.
 * DO NOT RELY ON ANY FINAL DATA WITHOUT FURTHER CHECKS.
 *
 ***********************************************************
 * NO POSTPROCESSING WILL BE DONE
 * IF YOU WANT POSTPROCESSING ANYWAY, SET postprocess_anyway TO .true.
 ***********************************************************

------------------------------------------------------------
          Leaving FHI-aims.
          Date     :  20201103, Time     :  200935.501

          Computational steps:
          | Number of self-consistency cycles          :           40
          | Number of SCF (re)initializations          :            1

          Detailed time accounting                     :  max(cpu_time)    wall_clock(cpu1)
          | Total time                                 :       41.088 s          41.637 s
          | Preparation time                           :        0.151 s           0.153 s
          | Boundary condition initalization           :        0.000 s           0.000 s
          | Grid partitioning                          :        0.017 s           0.017 s
          | Preloading free-atom quantities on grid    :        0.011 s           0.011 s
          | Free-atom superposition energy             :        0.001 s           0.001 s
          | Total time for integrations                :        0.235 s           0.238 s
          | Product basis setup: Total time            :        1.272 s           1.277 s
          | Total time evaluating exchange matrix      :        2.949 s           2.956 s
          | Total time for solution of K.-S. equations :        0.106 s           0.106 s
          | Total time for density & force components  :        0.610 s           0.252 s
          | Total time for mixing                      :        0.021 s           0.019 s
          | Total time for Hartree multipole update    :        0.056 s           0.058 s
          | Total time for Hartree multipole sum       :       35.795 s          35.880 s
          | Total time for total energy evaluation     :        0.007 s           0.010 s
          | Total time for scaled ZORA corrections     :        0.000 s           0.000 s

          Partial memory accounting:
          | Residual value for overall tracked memory usage across tasks:     0.000000 MB (should be 0.000000 MB)
          | Peak values for overall tracked memory usage:
          |   Minimum:        8.254 MB (on task  9 after allocating d_coeff_3fn)
          |   Maximum:       12.383 MB (on task  0 after allocating d_coeff_3fn)
          |   Average:        9.093 MB
          | Largest tracked array allocation:
          |   Minimum:        6.171 MB (d_coeff_3fn on task  0)
          |   Maximum:        6.171 MB (d_coeff_3fn on task  0)
          |   Average:        6.171 MB
          Note:  These values currently only include a subset of arrays which are explicitly tracked.
          The "true" memory usage will be greater.

------------------------------------------------------------
 *** scf_solver: SCF cycle not converged.
